! TOUCHSTONE file generated by CST MICROWAVE STUDIO
! Date and time: Sun Nov 12 18:02:17 2023
! Project name: waveguide_coaxial.cst
! Parameters = {vn=4; dl_rez_1=1; dl_rez=0.1; dl_stup_1=5; dl_stup_2=4.4; dl_stup_3=5.15; dl_stup_4=5.25; dl_stup_5=5; l_wave=50; rad_1=0.5; rad_2=1.2; rast=0.8; sh_stup=5; sh_stup_1=5; st_wave=2; vis_1=1; vis_coax=6.85; vis_stup_1=7.35; vis_stup_2=3.9; vis_stup_3=2.6; vis_stup_4=1; vis_stup_5=0.6; x_w=22.86; y_w=10.16}
! Header version: 2018
! Port assignment regex: !\s*Touchstone port\s*([0-9]+)\s*=\s*(CST MWS port|CST DS port)\s*([0-9]+|Zmin|Zmax)\s*\(\"(.*)\"\)(\s*mode\s*([0-9]+))?.*
! Touchstone port assignment:
! Touchstone port 1 = CST MWS port 1 ("")
! Touchstone port 2 = CST MWS port 2 ("")
! S-Parameters are not renormalized. Unphysical impedance of 0 will be written to the file.
# GHz S RI R 0
5                    0.298048418     0.952729914     0.0129276855  -0.00199832345     0.0129304591   -0.0019987417  -0.000116915442 -0.000245241245
5.0018               0.298937542     0.952448016     0.0129564257  -0.00200966964     0.0129591817  -0.00201009752  -0.000117137825 -0.000245421893
5.0036               0.299826899     0.952165163     0.0129852538  -0.00202105007     0.0129879922  -0.00202148745  -0.000117362415 -0.000245609081
5.0054               0.300716489     0.951881353     0.0130141704  -0.00203246499     0.0130168912  -0.00203291176  -0.000117589244  -0.00024580282
5.0072               0.301606311     0.951596585     0.0130431758  -0.00204391467     0.0130458789   -0.0020443707  -0.000117818343  -0.00024600312
5.009                0.302496367     0.951310857     0.0130722704  -0.00205539937     0.0130749559  -0.00205586456  -0.000118049745 -0.000246209992
5.0108               0.303386655     0.951024168     0.0131014546  -0.00206691935     0.0131041224  -0.00206739358  -0.000118283482 -0.000246423446
5.0126               0.304277176     0.950736516     0.0131307288   -0.0020784749      0.013133379  -0.00207895804  -0.000118519586 -0.000246643492
5.0144                0.30516793       0.9504479     0.0131600934  -0.00209006627      0.013162726  -0.00209055822  -0.000118758089 -0.000246870142
5.0162               0.306058918     0.950158317     0.0131895489  -0.00210169374     0.0131921639  -0.00210219437  -0.000118999023 -0.000247103405
5.018                0.306950138     0.949867766     0.0132190956  -0.00211335759      0.013221693  -0.00211386679  -0.000119242421 -0.000247343291
5.0198               0.307841592     0.949576246     0.0132487339  -0.00212505808     0.0132513138  -0.00212557574  -0.000119488315 -0.000247589811
5.0216               0.308733279     0.949283755     0.0132784644  -0.00213679551     0.0132810266   -0.0021373215  -0.000119736738 -0.000247842975
5.0234                 0.3096252     0.948990291     0.0133082872  -0.00214857015     0.0133108319  -0.00214910436  -0.000119987723 -0.000248102794
5.0252               0.310517353     0.948695852      0.013338203  -0.00216038228     0.0133407301   -0.0021609246  -0.000120241301 -0.000248369277
5.027                 0.31140974     0.948400437      0.013368212  -0.00217223219     0.0133707216   -0.0021727825  -0.000120497507 -0.000248642434
5.0288               0.312302361     0.948104044     0.0133983148  -0.00218412017     0.0134008068  -0.00218467834  -0.000120756373 -0.000248922276
5.0306               0.313195215     0.947806672     0.0134285117   -0.0021960465     0.0134309861  -0.00219661243  -0.000121017932 -0.000249208812
5.0324               0.314088303     0.947508319     0.0134588031  -0.00220801147       0.01346126  -0.00220858505  -0.000121282217 -0.000249502053
5.0342               0.314981624     0.947208982     0.0134891895  -0.00222001539     0.0134916289  -0.00222059649  -0.000121549262 -0.000249802008
5.036                0.315875179     0.946908661     0.0135196713  -0.00223205853     0.0135220931  -0.00223264704  -0.000121819099 -0.000250108687
5.0378               0.316768968     0.946607354     0.0135502488  -0.00224414121     0.0135526532  -0.00224473702  -0.000122091763 -0.000250422101
5.0396                0.31766299     0.946305058     0.0135809226  -0.00225626372     0.0135833094  -0.00225686671  -0.000122367286 -0.000250742258
5.0414               0.318557245     0.946001773      0.013611693  -0.00226842636     0.0136140624  -0.00226903641  -0.000122645703 -0.000251069169
5.0432               0.319451735     0.945697496     0.0136425604  -0.00228062943     0.0136449124  -0.00228124643  -0.000122927046 -0.000251402844
5.045                0.320346458     0.945392226     0.0136735253  -0.00229287325     0.0136758599  -0.00229349708   -0.00012321135 -0.000251743291
5.0468               0.321241415     0.945085961     0.0137045882  -0.00230515811     0.0137069053  -0.00230578867  -0.000123498648 -0.000252090522
5.0486               0.322136606     0.944778699     0.0137357493  -0.00231748434     0.0137380491   -0.0023181215  -0.000123788975 -0.000252444545
5.0504                0.32303203     0.944470439     0.0137670093  -0.00232985223     0.0137692916  -0.00233049588  -0.000124082365 -0.000252805369
5.0522               0.323927689     0.944161178     0.0137983684   -0.0023422621     0.0138006333  -0.00234291213  -0.000124378851 -0.000253173005
5.054                0.324823581     0.943850916     0.0138298271  -0.00235471428     0.0138320747  -0.00235537057  -0.000124678467 -0.000253547462
5.0558               0.325719707     0.943539649     0.0138613858  -0.00236720908     0.0138636161  -0.00236787152  -0.000124981249  -0.00025392875
5.0576               0.326616066     0.943227377      0.013893045  -0.00237974681      0.013895258  -0.00238041529   -0.00012528723 -0.000254316877
5.0594                0.32751266     0.942914097     0.0139248051  -0.00239232781     0.0139270009  -0.00239300221  -0.000125596445 -0.000254711853
5.0612               0.328409487     0.942599808     0.0139566666  -0.00240495239     0.0139588451  -0.00240563261  -0.000125908928 -0.000255113688
5.063                0.329306548     0.942284508     0.0139886298  -0.00241762089      0.013990791   -0.0024183068  -0.000126224715  -0.00025552239
5.0648               0.330203843     0.941968196     0.0140206952  -0.00243033363     0.0140228392  -0.00243102513  -0.000126543839  -0.00025593797
5.0666               0.331101371     0.941650868     0.0140528632  -0.00244309095     0.0140549901  -0.00244378792  -0.000126866336 -0.000256360435
5.0684               0.331999133     0.941332525     0.0140851343  -0.00245589318      0.014087244  -0.00245659551   -0.00012719224 -0.000256789796
5.0702               0.332897129     0.941013163     0.0141175089  -0.00246874065     0.0141196014  -0.00246944823  -0.000127521587 -0.000257226062
5.072                0.333795359      0.94069278     0.0141499874   -0.0024816337     0.0141520629  -0.00248234641  -0.000127854411 -0.000257669241
5.0738               0.334693822     0.940371376     0.0141825703  -0.00249457267     0.0141846287  -0.00249529041  -0.000128190748 -0.000258119343
5.0756               0.335592519     0.940048948      0.014215258  -0.00250755791     0.0142172994  -0.00250828057  -0.000128530632 -0.000258576377
5.0774                0.33649145     0.939725494      0.014248051  -0.00252058976     0.0142500753  -0.00252131722    -0.0001288741 -0.000259040352
5.0792               0.337390614     0.939401013     0.0142809497  -0.00253366857      0.014282957  -0.00253440072  -0.000129221186 -0.000259511276
5.081                0.338290011     0.939075502     0.0143139545  -0.00254679468     0.0143159449  -0.00254753141  -0.000129571927 -0.000259989159
5.0828               0.339189642      0.93874896     0.0143470659  -0.00255996845     0.0143490394  -0.00256070965  -0.000129926357 -0.000260474009
5.0846               0.340089507     0.938421385     0.0143802844  -0.00257319024     0.0143822409   -0.0025739358  -0.000130284512 -0.000260965836
5.0864               0.340989605     0.938092774     0.0144136103  -0.00258646038     0.0144155499  -0.00258721019  -0.000130646429 -0.000261464648
5.0882               0.341889936     0.937763127     0.0144470441  -0.00259977926     0.0144489669  -0.00260053321  -0.000131012142 -0.000261970454
5.09                 0.342790501     0.937432441     0.0144805863  -0.00261314722     0.0144824923   -0.0026139052  -0.000131381687 -0.000262483263
5.0918               0.343691298     0.937100714     0.0145142373  -0.00262656462     0.0145161265  -0.00262732653  -0.000131755102 -0.000263003084
5.0936               0.344592329     0.936767944     0.0145479975  -0.00264003184     0.0145498701  -0.00264079756  -0.000132132421 -0.000263529924
5.0954               0.345493593     0.936434129     0.0145818675  -0.00265354924     0.0145837234  -0.00265431867  -0.000132513681 -0.000264063794
5.0972               0.346395091     0.936099269     0.0146158477   -0.0026671172     0.0146176868  -0.00266789022  -0.000132898918 -0.000264604701
5.099                0.347296821     0.935763359     0.0146499384  -0.00268073607      0.014651761  -0.00268151258  -0.000133288169 -0.000265152654
5.1008               0.348198784     0.935426399     0.0146841402  -0.00269440624     0.0146859462  -0.00269518613  -0.000133681469 -0.000265707661
5.1026               0.349100979     0.935088387     0.0147184536  -0.00270812808      0.014720243  -0.00270891125  -0.000134078856 -0.000266269732
5.1044               0.350003408      0.93474932     0.0147528789  -0.00272190197     0.0147546518  -0.00272268831  -0.000134480365 -0.000266838875
5.1062               0.350906069     0.934409197     0.0147874166   -0.0027357283      0.014789173   -0.0027365177  -0.000134886034 -0.000267415098
5.108                0.351808963     0.934068016     0.0148220672  -0.00274960744     0.0148238072  -0.00275039979  -0.000135295899 -0.000267998409
5.1098               0.352712089     0.933725774     0.0148568312  -0.00276353978     0.0148585548  -0.00276433499  -0.000135709996 -0.000268588817
5.1116               0.353615447      0.93338247      0.014891709  -0.00277752571     0.0148934162  -0.00277832366  -0.000136128363 -0.000269186331
5.1134               0.354519038     0.933038102      0.014926701  -0.00279156562      0.014928392  -0.00279236621  -0.000136551037 -0.000269790959
5.1152               0.355422861     0.932692668     0.0149618078  -0.00280565991     0.0149634824  -0.00280646303  -0.000136978055 -0.000270402709
5.117                0.356326916     0.932346165     0.0149970297  -0.00281980896     0.0149986882  -0.00282061451  -0.000137409453  -0.00027102159
5.1188               0.357231203     0.931998592     0.0150323673  -0.00283401318     0.0150340095  -0.00283482106   -0.00013784527 -0.000271647609
5.1206               0.358135722     0.931649947     0.0150678209  -0.00284827296     0.0150694471  -0.00284908306  -0.000138285541 -0.000272280775
5.1224               0.359040472     0.931300227     0.0151033912  -0.00286258871     0.0151050013  -0.00286340093  -0.000138730305 -0.000272921097
5.1242               0.359945454     0.930949431     0.0151390785  -0.00287696084     0.0151406725  -0.00287777507  -0.000139179598 -0.000273568582
5.126                0.360850668     0.930597557     0.0151748832  -0.00289138974     0.0151764613  -0.00289220589  -0.000139633459  -0.00027422324
5.1278               0.361756113     0.930244602      0.015210806  -0.00290587583     0.0152123681  -0.00290669379  -0.000140091925 -0.000274885077
5.1296               0.362661789     0.929890565     0.0152468471  -0.00292041952     0.0152483933  -0.00292123919  -0.000140555033 -0.000275554102
5.1314               0.363567696     0.929535443     0.0152830072  -0.00293502122     0.0152845376   -0.0029358425  -0.000141022822 -0.000276230323
5.1332               0.364473834     0.929179234     0.0153192867  -0.00294968136     0.0153208012  -0.00295050414  -0.000141495328 -0.000276913749
5.135                0.365380203     0.928821937     0.0153556859  -0.00296440034     0.0153571848  -0.00296522453   -0.00014197259 -0.000277604387
5.1368               0.366286802     0.928463549     0.0153922055   -0.0029791786     0.0153936886  -0.00298000409  -0.000142454645 -0.000278302246
5.1386               0.367193632     0.928104068     0.0154288459  -0.00299401654     0.0154303134  -0.00299484325  -0.000142941533 -0.000279007334
5.1404               0.368100692     0.927743493     0.0154656076  -0.00300891462     0.0154670594  -0.00300974242   -0.00014343329 -0.000279719658
5.1422               0.369007982      0.92738182     0.0155024909  -0.00302387323     0.0155039272  -0.00302470205  -0.000143929954 -0.000280439227
5.144                0.369915503     0.927019048     0.0155394965  -0.00303889283     0.0155409173  -0.00303972256  -0.000144431565 -0.000281166049
5.1458               0.370823253     0.926655174     0.0155766247  -0.00305397385     0.0155780301  -0.00305480438   -0.00014493816 -0.000281900132
5.1476               0.371731232     0.926290198     0.0156138761  -0.00306911671     0.0156152662  -0.00306994796  -0.000145449778 -0.000282641484
5.1494               0.372639442     0.925924115     0.0156512512  -0.00308432186     0.0156526259  -0.00308515373  -0.000145966457 -0.000283390112
5.1512                0.37354788     0.925556925     0.0156887503  -0.00309958974     0.0156901097  -0.00310042213  -0.000146488235 -0.000284146025
5.153                0.374456547     0.925188626     0.0157263741  -0.00311492079     0.0157277183   -0.0031157536  -0.000147015151 -0.000284909231
5.1548               0.375365444     0.924819214     0.0157641229  -0.00313031546     0.0157654519   -0.0031311486  -0.000147547244 -0.000285679738
5.1566               0.376274569     0.924448688     0.0158019972  -0.00314577419     0.0158033112  -0.00314660756  -0.000148084553 -0.000286457554
5.1584               0.377183923     0.924077046     0.0158399976  -0.00316129744     0.0158412966  -0.00316213095  -0.000148627115 -0.000287242686
5.1602               0.378093504     0.923704285     0.0158781246  -0.00317688566     0.0158794085  -0.00317771921  -0.000149174971 -0.000288035143
5.162                0.379003314     0.923330404     0.0159163785   -0.0031925393     0.0159176475   -0.0031933728  -0.000149728158 -0.000288834933
5.1638               0.379913352       0.9229554     0.0159547599  -0.00320825882     0.0159560141  -0.00320909218  -0.000150286716 -0.000289642063
5.1656               0.380823618      0.92257927     0.0159932693  -0.00322404469     0.0159945086  -0.00322487781  -0.000150850684 -0.000290456541
5.1674                0.38173411     0.922202014     0.0160319071  -0.00323989736     0.0160331317  -0.00324073016  -0.000151420101 -0.000291278376
5.1692                0.38264483     0.921823628     0.0160706739  -0.00325581731     0.0160718839  -0.00325664968  -0.000151995006 -0.000292107576
5.171                0.383555777     0.921444111     0.0161095701  -0.00327180499     0.0161107655  -0.00327263685  -0.000152575438 -0.000292944147
5.1728               0.384466951      0.92106346     0.0161485963  -0.00328786088     0.0161497771  -0.00328869214  -0.000153161437 -0.000293788099
5.1746               0.385378351     0.920681672     0.0161877529  -0.00330398546     0.0161889191  -0.00330481602  -0.000153753042 -0.000294639439
5.1764               0.386289977     0.920298747     0.0162270403  -0.00332017919     0.0162281922  -0.00332100897  -0.000154350292 -0.000295498176
5.1782                0.38720183     0.919914681     0.0162664592  -0.00333644256     0.0162675967  -0.00333727147  -0.000154953227 -0.000296364316
5.18                 0.388113908     0.919529472       0.01630601  -0.00335277604     0.0163071332  -0.00335360399  -0.000155561887 -0.000297237869
5.1818               0.389026211     0.919143118     0.0163456931  -0.00336918012     0.0163468021  -0.00337000702   -0.00015617631 -0.000298118842
5.1836                0.38993874     0.918755617     0.0163855092  -0.00338565529      0.016386604  -0.00338648105  -0.000156796537 -0.000299007243
5.1854               0.390851494     0.918366966     0.0164254586  -0.00340220203     0.0164265393  -0.00340302657  -0.000157422608  -0.00029990308
5.1872               0.391764472     0.917977163     0.0164655419  -0.00341882083     0.0164666086  -0.00341964406  -0.000158054562 -0.000300806361
5.189                0.392677674     0.917586206     0.0165057596  -0.00343551218     0.0165068123  -0.00343633402  -0.000158692439 -0.000301717095
5.1908               0.393591101     0.917194093     0.0165461121  -0.00345227659      0.016547151  -0.00345309695  -0.000159336279 -0.000302635288
5.1926               0.394504752     0.916800821        0.0165866  -0.00346911455     0.0165876251  -0.00346993334  -0.000159986123 -0.000303560951
5.1944               0.395418626     0.916406388     0.0166272238  -0.00348602655     0.0166282351   -0.0034868437  -0.000160642009 -0.000304494089
5.1962               0.396332723     0.916010792      0.016667984  -0.00350301311     0.0166689816  -0.00350382852  -0.000161303978 -0.000305434712
5.198                0.397247043      0.91561403      0.016708881  -0.00352007473      0.016709865  -0.00352088832  -0.000161972071 -0.000306382828
5.1998               0.398161585       0.9152161     0.0167499155  -0.00353721191     0.0167508859  -0.00353802361  -0.000162646327 -0.000307338445
5.2016                0.39907635        0.914817     0.0167910878  -0.00355442517     0.0167920448  -0.00355523489  -0.000163326788 -0.000308301571
5.2034               0.399991337     0.914416727     0.0168323985  -0.00357171502     0.0168333421  -0.00357252268  -0.000164013492 -0.000309272214
5.2052               0.400906545      0.91401528     0.0168738481  -0.00358908198     0.0168747784   -0.0035898875  -0.000164706481 -0.000310250382
5.207                0.401821975     0.913612655     0.0169154371  -0.00360652656     0.0169163542  -0.00360732986  -0.000165405795 -0.000311236085
5.2088               0.402737626      0.91320885     0.0169571661  -0.00362404929     0.0169580699  -0.00362485029  -0.000166111475 -0.000312229329
5.2106               0.403653497     0.912803864     0.0169990354  -0.00364165069     0.0169999262  -0.00364244931  -0.000166823561 -0.000313230124
5.2124               0.404569588     0.912397693     0.0170410457  -0.00365933129     0.0170419235  -0.00366012745  -0.000167542094 -0.000314238478
5.2142                 0.4054859     0.911990335     0.0170831975   -0.0036770916     0.0170840623  -0.00367788524  -0.000168267114   -0.0003152544
5.216                 0.40640243     0.911581788     0.0171254912  -0.00369493218     0.0171263431   -0.0036957232  -0.000168998663 -0.000316277897
5.2178               0.407319181      0.91117205     0.0171679273  -0.00371285354     0.0171687665  -0.00371364188   -0.00016973678 -0.000317308978
5.2196               0.408236149     0.910761117     0.0172105065  -0.00373085623     0.0172113329  -0.00373164181  -0.000170481508 -0.000318347653
5.2214               0.409153337     0.910348989     0.0172532292  -0.00374894079      0.017254043  -0.00374972352  -0.000171232886 -0.000319393928
5.2232               0.410070742     0.909935661     0.0172960959  -0.00376710775     0.0172968971  -0.00376788758  -0.000171990956 -0.000320447814
5.225                0.410988365     0.909521133     0.0173391071  -0.00378535766     0.0173398959   -0.0037861345  -0.000172755759 -0.000321509319
5.2268               0.411906205       0.9091054     0.0173822634  -0.00380369107     0.0173830398  -0.00380446486  -0.000173527336 -0.000322578451
5.2286               0.412824263     0.908688462     0.0174255653  -0.00382210852     0.0174263293  -0.00382287918  -0.000174305728  -0.00032365522
5.2304               0.413742536     0.908270316     0.0174690132  -0.00384061058      0.017469765  -0.00384137804  -0.000175090977 -0.000324739634
5.2322               0.414661026     0.907850958     0.0175126078  -0.00385919778     0.0175133475  -0.00385996197  -0.000175883122 -0.000325831702
5.234                0.415579731     0.907430387     0.0175563496   -0.0038778707     0.0175570771  -0.00387863155  -0.000176682207 -0.000326931434
5.2358               0.416498652     0.907008601      0.017600239  -0.00389662989     0.0176009545  -0.00389738733  -0.000177488272 -0.000328038837
5.2376               0.417417788     0.906585596     0.0176442765  -0.00391547591     0.0176449802  -0.00391622987  -0.000178301358 -0.000329153922
5.2394               0.418337138      0.90616137     0.0176884629  -0.00393440932     0.0176891547  -0.00393515974  -0.000179121507 -0.000330276698
5.2412               0.419256701     0.905735921     0.0177327984   -0.0039534307     0.0177334785  -0.00395417751  -0.000179948761 -0.000331407173
5.243                0.420176479     0.905309247     0.0177772837  -0.00397254062     0.0177779521  -0.00397328375  -0.000180783161 -0.000332545358
5.2448               0.421096469     0.904881344     0.0178219194  -0.00399173964     0.0178225762  -0.00399247903  -0.000181624749 -0.000333691261
5.2466               0.422016672     0.904452211     0.0178667058  -0.00401102835     0.0178673511  -0.00401176393  -0.000182473566 -0.000334844892
5.2484               0.422937088     0.904021844     0.0179116436  -0.00403040732     0.0179122775  -0.00403113902  -0.000183329654 -0.000336006261
5.2502               0.423857715     0.903590242     0.0179567334  -0.00404987713     0.0179573559   -0.0040506049  -0.000184193054 -0.000337175377
5.252                0.424778553     0.903157402     0.0180019755  -0.00406943836     0.0180025868  -0.00407016213   -0.00018506381 -0.000338352251
5.2538               0.425699602      0.90272332     0.0180473706  -0.00408909161     0.0180479708  -0.00408981132  -0.000185941962 -0.000339536891
5.2556               0.426620861     0.902287996     0.0180929193  -0.00410883745     0.0180935083  -0.00410955304  -0.000186827552 -0.000340729308
5.2574                0.42754233     0.901851426     0.0181386219  -0.00412867648        0.0181392  -0.00412938789  -0.000187720623 -0.000341929511
5.2592               0.428464008     0.901413607     0.0181844791   -0.0041486093     0.0181850463  -0.00414931646  -0.000188621216 -0.000343137512
5.261                0.429385895     0.900974538     0.0182304915   -0.0041686365     0.0182310479  -0.00416933936  -0.000189529374  -0.00034435332
5.2628               0.430307991     0.900534215     0.0182766595  -0.00418875868     0.0182772052  -0.00418945718  -0.000190445138 -0.000345576945
5.2646               0.431230294     0.900092636     0.0183229837  -0.00420897643     0.0183235187  -0.00420967052  -0.000191368551 -0.000346808398
5.2664               0.432152804     0.899649798     0.0183694646  -0.00422929037     0.0183699891  -0.00422997999  -0.000192299655  -0.00034804769
5.2682               0.433075521       0.8992057     0.0184161029  -0.00424970111     0.0184166169   -0.0042503862  -0.000193238493  -0.00034929483
5.27                 0.433998445     0.898760337     0.0184628989  -0.00427020924     0.0184634026  -0.00427088975  -0.000194185105 -0.000350549831
5.2718               0.434921574     0.898313708     0.0185098533  -0.00429081539     0.0185103467  -0.00429149126  -0.000195139536 -0.000351812702
5.2736               0.435844908     0.897865811     0.0185569667  -0.00431152017     0.0185574499  -0.00431219134  -0.000196101827 -0.000353083455
5.2754               0.436768447     0.897416642     0.0186042395  -0.00433232419     0.0186047126  -0.00433299062  -0.000197072021 -0.000354362101
5.2772                0.43769219     0.896966198     0.0186516724  -0.00435322808     0.0186521355  -0.00435388972   -0.00019805016  -0.00035564865
5.279                0.438616136     0.896514478     0.0186992658  -0.00437423245      0.018699719  -0.00437488925  -0.000199036287 -0.000356943116
5.2808               0.439540285     0.896061479     0.0187470204  -0.00439533794     0.0187474637  -0.00439598984  -0.000200030445 -0.000358245508
5.2826               0.440464637     0.895607197     0.0187949366  -0.00441654517     0.0187953702  -0.00441719212  -0.000201032675 -0.000359555839
5.2844                0.44138919     0.895151631      0.018843015  -0.00443785478      0.018843439  -0.00443849673  -0.000202043022  -0.00036087412
5.2862               0.442313944     0.894694778     0.0188912563  -0.00445926738     0.0188916707   -0.0044599043  -0.000203061527 -0.000362200363
5.288                  0.4432389     0.894236634     0.0189396609  -0.00448078363     0.0189400659  -0.00448141546  -0.000204088233 -0.000363534582
5.2898               0.444164055     0.893777198     0.0189882294  -0.00450240416      0.018988625  -0.00450303086  -0.000205123184 -0.000364876786
5.2916               0.445089409     0.893316467     0.0190369624  -0.00452412961     0.0190373487  -0.00452475113  -0.000206166421  -0.00036622699
5.2934               0.446014962     0.892854438     0.0190858604  -0.00454596063     0.0190862376  -0.00454657692  -0.000207217989 -0.000367585206
5.2952               0.446940714     0.892391109      0.019134924  -0.00456789785     0.0191352921  -0.00456850888   -0.00020827793 -0.000368951446
5.297                0.447866663     0.891926476     0.0191841538  -0.00458994194     0.0191845128  -0.00459054765  -0.000209346286 -0.000370325723
5.2988               0.448792809     0.891460537     0.0192335503  -0.00461209354     0.0192339004   -0.0046126939  -0.000210423103 -0.000371708051
5.3006               0.449719151     0.890993289     0.0192831141   -0.0046343533     0.0192834554  -0.00463494828  -0.000211508421 -0.000373098442
5.3024               0.450645689     0.890524731     0.0193328457  -0.00465672189     0.0193331783  -0.00465731143  -0.000212602285  -0.00037449691
5.3042               0.451572421     0.890054858     0.0193827458  -0.00467919997     0.0193830698  -0.00467978404  -0.000213704737 -0.000375903469
5.306                0.452499348     0.889583668     0.0194328148  -0.00470178819     0.0194331303  -0.00470236675  -0.000214815822 -0.000377318132
5.3078               0.453426469     0.889111159     0.0194830535  -0.00472448722     0.0194833605  -0.00472506023  -0.000215935582 -0.000378740913
5.3096               0.454353783     0.888637328     0.0195334623  -0.00474729773      0.019533761  -0.00474786516  -0.000217064061 -0.000380171827
5.3114               0.455281289     0.888162171     0.0195840418  -0.00477022039     0.0195843323   -0.0047707822  -0.000218201302 -0.000381610887
5.3132               0.456208987     0.887685687     0.0196347926  -0.00479325587     0.0196350749  -0.00479381203  -0.000219347348  -0.00038305811
5.315                0.457136876     0.887207873     0.0196857153  -0.00481640485     0.0196859896  -0.00481695532  -0.000220502244 -0.000384513508
5.3168               0.458064955     0.886728726     0.0197368105  -0.00483966801     0.0197370768  -0.00484021276  -0.000221666033 -0.000385977097
5.3186               0.458993224     0.886248242     0.0197880787  -0.00486304603     0.0197883371  -0.00486358502  -0.000222838758 -0.000387448893
5.3204               0.459921681      0.88576642     0.0198395205  -0.00488653959     0.0198397712   -0.0048870728  -0.000224020464 -0.000388928911
5.3222               0.460850327     0.885283257     0.0198911365  -0.00491014937     0.0198913796  -0.00491067677  -0.000225211193 -0.000390417167
5.324                 0.46177916     0.884798749     0.0199429273  -0.00493387608     0.0199431628  -0.00493439763   -0.00022641099 -0.000391913675
5.3258                0.46270818     0.884312894     0.0199948936  -0.00495772039     0.0199951216  -0.00495823607  -0.000227619898 -0.000393418454
5.3276               0.463637386      0.88382569     0.0200470358  -0.00498168301     0.0200472564  -0.00498219279  -0.000228837962 -0.000394931518
5.3294               0.464566778     0.883337133     0.0200993545  -0.00500576463     0.0200995679  -0.00500626848  -0.000230065225 -0.000396452884
5.3312               0.465496353      0.88284722     0.0201518504  -0.00502996595     0.0201520566  -0.00503046384  -0.000231301732 -0.000397982571
5.333                0.466426113     0.882355949     0.0202045241  -0.00505428767     0.0202047232  -0.00505477959  -0.000232547526 -0.000399520593
5.3348               0.467356055     0.881863318     0.0202573761   -0.0050787305     0.0202575683  -0.00507921642  -0.000233802652  -0.00040106697
5.3366                0.46828618     0.881369322     0.0203104071  -0.00510329515     0.0203105924  -0.00510377504  -0.000235067153 -0.000402621718
5.3384               0.469216486      0.88087396     0.0203636176  -0.00512798232     0.0203637961  -0.00512845617  -0.000236341074 -0.000404184855
5.3402               0.470146973     0.880377229     0.0204170083  -0.00515279274     0.0204171801  -0.00515326052   -0.00023762446   -0.0004057564
5.342                 0.47107764     0.879879125     0.0204705798  -0.00517772711     0.0204707449   -0.0051781888  -0.000238917355 -0.000407336372
5.3438               0.472008486     0.879379646     0.0205243326  -0.00520278616     0.0205244912  -0.00520324174  -0.000240219802 -0.000408924788
5.3456                0.47293951     0.878878789     0.0205782673   -0.0052279706     0.0205784196  -0.00522842006  -0.000241531847 -0.000410521668
5.3474               0.473870712     0.878376551     0.0206323847  -0.00525328117     0.0206325306  -0.00525372448  -0.000242853534 -0.000412127031
5.3492               0.474802091      0.87787293     0.0206866852  -0.00527871858      0.020686825  -0.00527915573  -0.000244184908 -0.000413740898
5.351                0.475733645     0.877367922     0.0207411696  -0.00530428357     0.0207413032  -0.00530471454  -0.000245526012 -0.000415363288