! TOUCHSTONE file generated by CST MICROWAVE STUDIO
! Date and time: Tue Nov  7 19:43:50 2023
! Project name: filter_ekran.cst
! Parameters = {t=0.018; shir=10; st=0.5; vis_ekr=3.5}
! Header version: 2018
! Port assignment regex: !\s*Touchstone port\s*([0-9]+)\s*=\s*(CST MWS port|CST DS port)\s*([0-9]+|Zmin|Zmax)\s*\(\"(.*)\"\)(\s*mode\s*([0-9]+))?.*
! Touchstone port assignment:
! Touchstone port 1 = CST MWS port 1 ("")
! Touchstone port 2 = CST MWS port 2 ("")
# GHz S RI R 50
6                    0.811950001    -0.564108009  -0.000898721113  -0.00131643046  -0.000898720691  -0.00131643124      0.814652395    -0.560150064
6.0016               0.810780168    -0.565775208  -0.000901815545  -0.00131510153  -0.000901844298  -0.00131511686      0.813498283    -0.561812033
6.0032               0.809606979    -0.567439949  -0.000904908325  -0.00131376499  -0.000904966147  -0.00131379463        0.8123408    -0.563471656
6.0048               0.808430438    -0.569102223  -0.000907999431  -0.00131242085  -0.000908086218  -0.00131246458      0.811179953    -0.565128925
6.0064               0.807250553    -0.570762025  -0.000911088842  -0.00131106909  -0.000911204487  -0.00131112669      0.810015747    -0.566783832
6.008                0.806067328    -0.572419344  -0.000914176536  -0.00130970973  -0.000914320933  -0.00130978096      0.808848186    -0.568436368
6.0096                0.80488077    -0.574074175  -0.000917262493  -0.00130834276  -0.000917435533  -0.00130842742      0.807677278    -0.570086527
6.0112               0.803690885    -0.575726508   -0.00092034669   -0.0013069682  -0.000920548264  -0.00130706605      0.806503027    -0.571734299
6.0128               0.802497678    -0.577376337  -0.000923429107  -0.00130558604  -0.000923659105  -0.00130569687      0.805325439    -0.573379677
6.0144               0.801301156    -0.579023654  -0.000926509721  -0.00130419629  -0.000926768032  -0.00130431987      0.804144519    -0.575022653
6.016                0.800101324     -0.58066845  -0.000929588512  -0.00130279895  -0.000929875024  -0.00130293507      0.802960273    -0.576663218
6.0176               0.798898189     -0.58231072  -0.000932665459  -0.00130139402  -0.000932980059  -0.00130154247      0.801772707    -0.578301366
6.0192               0.797691756    -0.583950454  -0.000935740539  -0.00129998151  -0.000936083114  -0.00130014206      0.800581826    -0.579937087
6.0208               0.796482032    -0.585587646  -0.000938813732  -0.00129856143  -0.000939184167  -0.00129873386      0.799387636    -0.581570374
6.0224               0.795269023    -0.587222287  -0.000941885016  -0.00129713376  -0.000942283197  -0.00129731787      0.798190142     -0.58320122
6.024                0.794052734    -0.588854371  -0.000944954371  -0.00129569853  -0.000945380179   -0.0012958941       0.79698935    -0.584829615
6.0256               0.792833173    -0.590483889  -0.000948021774  -0.00129425573  -0.000948475094  -0.00129446255      0.795785267    -0.586455553
6.0272               0.791610344    -0.592110835  -0.000951087204  -0.00129280536  -0.000951567918  -0.00129302322      0.794577897    -0.588079026
6.0288               0.790384254      -0.5937352  -0.000954150641  -0.00129134744   -0.00095465863  -0.00129157613      0.793367246    -0.589700025
6.0304                0.78915491    -0.595356977  -0.000957212064  -0.00128988196  -0.000957747207  -0.00129012127      0.792153321    -0.591318543
6.032                0.787922317     -0.59697616   -0.00096027145  -0.00128840892  -0.000960833628  -0.00128865865      0.790936127    -0.592934572
6.0336               0.786686482    -0.598592739  -0.000963328779  -0.00128692834   -0.00096391787  -0.00128718827      0.789715669    -0.594548104
6.0352               0.785447411    -0.600206709   -0.00096638403  -0.00128544022  -0.000966999911  -0.00128571015      0.788491954    -0.596159132
6.0368               0.784205109    -0.601818061  -0.000969437181  -0.00128394455   -0.00097007973  -0.00128422429      0.787264988    -0.597767648
6.0384               0.782959585    -0.603426789  -0.000972488212  -0.00128244135  -0.000973157305  -0.00128273068      0.786034776    -0.599373644
6.04                 0.781710842    -0.605032884  -0.000975537101  -0.00128093063  -0.000976232613  -0.00128122935      0.784801325    -0.600977112
6.0416               0.780458889     -0.60663634  -0.000978583827  -0.00127941237  -0.000979305634  -0.00127972029       0.78356464    -0.602578045
6.0432               0.779203732    -0.608237149   -0.00098162837   -0.0012778866  -0.000982376344  -0.00127820351      0.782324727    -0.604176435
6.0448               0.777945375    -0.609835304  -0.000984670707   -0.0012763533  -0.000985444723  -0.00127667901      0.781081592    -0.605772274
6.0464               0.776683827    -0.611430798  -0.000987710819   -0.0012748125  -0.000988510749  -0.00127514681      0.779835242    -0.607365555
6.048                0.775419094    -0.613023623  -0.000990748685  -0.00127326419  -0.000991574399   -0.0012736069      0.778585682     -0.60895627
6.0496               0.774151181    -0.614613772  -0.000993784282  -0.00127170837  -0.000994635652   -0.0012720593      0.777332918    -0.610544412
6.0512               0.772880095    -0.616201238  -0.000996817591  -0.00127014506  -0.000997694487    -0.001270504      0.776076956    -0.612129973
6.0528               0.771605843    -0.617786014   -0.00099984859  -0.00126857426   -0.00100075088  -0.00126894102      0.774817803    -0.613712945
6.0544               0.770328431    -0.619368092   -0.00100287726  -0.00126699597   -0.00100380481  -0.00126737037      0.773555465    -0.615293321
6.056                0.769047865    -0.620947466   -0.00100590358   -0.0012654102   -0.00100685626  -0.00126579204      0.772289947    -0.616871094
6.0576               0.767764153    -0.622524128   -0.00100892752  -0.00126381695   -0.00100990521  -0.00126420604      0.771021256    -0.618446255
6.0592                 0.7664773    -0.624098071   -0.00101194907  -0.00126221623   -0.00101295162  -0.00126261239      0.769749398    -0.620018798
6.0608               0.765187313    -0.625669289   -0.00101496821  -0.00126060804   -0.00101599549  -0.00126101109      0.768474379    -0.621588714
6.0624               0.763894199    -0.627237773   -0.00101798492   -0.0012589924   -0.00101903679  -0.00125940214      0.767196205    -0.623155998
6.064                0.762597965    -0.628803518   -0.00102099917  -0.00125736929    -0.0010220755  -0.00125778555      0.765914883     -0.62472064
6.0656               0.761298616    -0.630366515   -0.00102401094  -0.00125573874    -0.0010251116  -0.00125616133      0.764630419    -0.626282634
6.0672               0.759996159    -0.631926758   -0.00102702021  -0.00125410075   -0.00102814506  -0.00125452948      0.763342819    -0.627841972
6.0688               0.758690602     -0.63348424   -0.00103002697  -0.00125245532   -0.00103117587  -0.00125289001       0.76205209    -0.629398648
6.0704                0.75738195    -0.635038954   -0.00103303119  -0.00125080245     -0.001034204  -0.00125124294      0.760758237    -0.630952653
6.072                 0.75607021    -0.636590893   -0.00103603285  -0.00124914216   -0.00103722944  -0.00124958826      0.759461267     -0.63250398
6.0736                0.75475539     -0.63814005   -0.00103903194  -0.00124747445   -0.00104025215  -0.00124792598      0.758161187    -0.634052622
6.0752               0.753437495    -0.639686418   -0.00104202842  -0.00124579932   -0.00104327213  -0.00124625612      0.756858002    -0.635598572
6.0768               0.752116532     -0.64122999   -0.00104502228  -0.00124411679   -0.00104628935  -0.00124457867       0.75555172    -0.637141823
6.0784               0.750792509     -0.64277076    -0.0010480135  -0.00124242685   -0.00104930378  -0.00124289364      0.754242346    -0.638682367
6.08                 0.749465432     -0.64430872   -0.00105100206  -0.00124072952   -0.00105231541  -0.00124120105      0.752929887    -0.640220196
6.0816               0.748135307    -0.645843864   -0.00105398794   -0.0012390248   -0.00105532421   -0.0012395009       0.75161435    -0.641755305
6.0832               0.746802141    -0.647376185   -0.00105697112  -0.00123731269   -0.00105833017   -0.0012377932       0.75029574    -0.643287685
6.0848               0.745465942    -0.648905675   -0.00105995157  -0.00123559321   -0.00106133327  -0.00123607795      0.748974065     -0.64481733
6.0864               0.744126716     -0.65043233   -0.00106292928  -0.00123386636   -0.00106433347  -0.00123435516      0.747649331    -0.646344232
6.088                 0.74278447     -0.65195614   -0.00106590423  -0.00123213214   -0.00106733077  -0.00123262485      0.746321545    -0.647868384
6.0896               0.741439211    -0.653477101   -0.00106887639  -0.00123039057   -0.00107032514  -0.00123088701      0.744990712    -0.649389779
6.0912               0.740090945    -0.654995205   -0.00107184575  -0.00122864164   -0.00107331656  -0.00122914166       0.74365684     -0.65090841
6.0928               0.738739679    -0.656510445   -0.00107481228  -0.00122688538   -0.00107630501  -0.00122738881      0.742319935    -0.652424271
6.0944               0.737385421    -0.658022815   -0.00107777597  -0.00122512177   -0.00107929047  -0.00122562845      0.740980004    -0.653937353
6.096                0.736028177    -0.659532309    -0.0010807368  -0.00122335084   -0.00108227291  -0.00122386061      0.739637053     -0.65544765
6.0976               0.734667955    -0.661038918   -0.00108369474  -0.00122157259   -0.00108525233  -0.00122208529      0.738291089    -0.656955155
6.0992                0.73330476    -0.662542638   -0.00108664978  -0.00121978701   -0.00108822869  -0.00122030249      0.736942119    -0.658459861
6.1008               0.731938601    -0.664043462   -0.00108960189  -0.00121799413   -0.00109120197  -0.00121851223      0.735590149    -0.659961762
6.1024               0.730569484    -0.665541382   -0.00109255105  -0.00121619395   -0.00109417216  -0.00121671452      0.734235186    -0.661460849
6.104                0.729197416    -0.667036392   -0.00109549725  -0.00121438648   -0.00109713924  -0.00121490936      0.732877237    -0.662957116
6.1056               0.727822404    -0.668528486   -0.00109844047  -0.00121257171   -0.00110010318  -0.00121309676      0.731516309    -0.664450557
6.1072               0.726444455    -0.670017658   -0.00110138068  -0.00121074967   -0.00110306397  -0.00121127673      0.730152407    -0.665941164
6.1088               0.725063577      -0.6715039   -0.00110431787  -0.00120892036   -0.00110602158  -0.00120944927       0.72878554     -0.66742893
6.1104               0.723679776    -0.672987207   -0.00110725201  -0.00120708378   -0.00110897599  -0.00120761441      0.727415714     -0.66891385
6.112                0.722293059    -0.674467571   -0.00111018308  -0.00120523994   -0.00111192719  -0.00120577214      0.726042935    -0.670395915
6.1136               0.720903433    -0.675944988   -0.00111311107  -0.00120338886   -0.00111487515  -0.00120392247       0.72466721    -0.671875119
6.1152               0.719510907    -0.677419449   -0.00111603596  -0.00120153053   -0.00111781985  -0.00120206543      0.723288547    -0.673351456
6.1168               0.718115485     -0.67889095   -0.00111895772  -0.00119966497   -0.00112076127    -0.001200201      0.721906952    -0.674824918
6.1184               0.716717177    -0.680359482   -0.00112187634  -0.00119779219    -0.0011236994   -0.0011983292      0.720522432      -0.6762955
6.12                 0.715315989    -0.681825041    -0.0011247918  -0.00119591218   -0.00112663421  -0.00119645005      0.719134994    -0.677763193
6.1216               0.713911927     -0.68328762   -0.00112770407  -0.00119402497   -0.00112956568  -0.00119456355      0.717744644    -0.679227992
6.1232               0.712505001    -0.684747213   -0.00113061314  -0.00119213055   -0.00113249379  -0.00119266971      0.716351391     -0.68068989
6.1248               0.711095215    -0.686203813   -0.00113351899  -0.00119022894   -0.00113541853  -0.00119076853       0.71495524    -0.682148881
6.1264               0.709682579    -0.687657414   -0.00113642159  -0.00118832015   -0.00113833987  -0.00118886004      0.713556199    -0.683604956
6.128                0.708267098    -0.689108009   -0.00113932094  -0.00118640418   -0.00114125779  -0.00118694423      0.712154274    -0.685058111
6.1296               0.706848781    -0.690555594     -0.001142217  -0.00118448103   -0.00114417227  -0.00118502113      0.710749473    -0.686508339
6.1312               0.705427634    -0.692000162   -0.00114510976  -0.00118255073    -0.0011470833  -0.00118309072      0.709341803    -0.687955632
6.1328               0.704003665    -0.693441705    -0.0011479992  -0.00118061328   -0.00114999085  -0.00118115304       0.70793127    -0.689399985
6.1344               0.702576881    -0.694880219   -0.00115088531  -0.00117866868    -0.0011528949  -0.00117920808      0.706517882    -0.690841391
6.136                0.701147289    -0.696315698   -0.00115376805  -0.00117671695   -0.00115579544  -0.00117725586      0.705101646    -0.692279843
6.1376               0.699714898    -0.697748134   -0.00115664742  -0.00117475809   -0.00115869244  -0.00117529639      0.703682568    -0.693715335
6.1392               0.698279713    -0.699177523   -0.00115952339  -0.00117279211   -0.00116158589  -0.00117332967      0.702260657     -0.69514786
6.1408               0.696841742    -0.700603858   -0.00116239594  -0.00117081902   -0.00116447576  -0.00117135572      0.700835919    -0.696577413
6.1424               0.695400994    -0.702027133   -0.00116526506  -0.00116883883   -0.00116736204  -0.00116937455      0.699408361    -0.698003987
6.144                0.693957474    -0.703447342   -0.00116813072  -0.00116685155    -0.0011702447  -0.00116738616       0.69797799    -0.699427575
6.1456               0.692511191    -0.704864479   -0.00117099291  -0.00116485719   -0.00117312373  -0.00116539057      0.696544814     -0.70084817
6.1472               0.691062152    -0.706278538   -0.00117385161  -0.00116285576   -0.00117599911  -0.00116338779       0.69510884    -0.702265768
6.1488               0.689610364    -0.707689514   -0.00117670679  -0.00116084726   -0.00117887082  -0.00116137782      0.693670074    -0.703680361
6.1504               0.688155835      -0.7090974   -0.00117955845   -0.0011588317   -0.00118173883  -0.00115936068      0.692228525    -0.705091943
6.152                0.686698573    -0.710502191   -0.00118240655   -0.0011568091   -0.00118460314  -0.00115733638      0.690784199    -0.706500508
6.1536               0.685238584    -0.711903881   -0.00118525109  -0.00115477946   -0.00118746372  -0.00115530493      0.689337103     -0.70790605
6.1552               0.683775876    -0.713302463   -0.00118809204   -0.0011527428   -0.00119032055  -0.00115326634      0.687887245    -0.709308561
6.1568               0.682310456    -0.714697933   -0.00119092938  -0.00115069911   -0.00119317361  -0.00115122062      0.686434633    -0.710708038
6.1584               0.680842333    -0.716090283    -0.0011937631  -0.00114864842   -0.00119602289  -0.00114916778      0.684979273    -0.712104472
6.16                 0.679371514     -0.71747951   -0.00119659317  -0.00114659073   -0.00119886836  -0.00114710783      0.683521172    -0.713497858
6.1616               0.677898006    -0.718865606   -0.00119941958  -0.00114452605   -0.00120171001  -0.00114504078      0.682060339     -0.71488819
6.1632               0.676421816    -0.720248566   -0.00120224231  -0.00114245438   -0.00120454781  -0.00114296664       0.68059678    -0.716275462
6.1648               0.674942953    -0.721628385   -0.00120506135  -0.00114037575   -0.00120738175  -0.00114088543      0.679130503    -0.717659667
6.1664               0.673461424    -0.723005057   -0.00120787666  -0.00113829016   -0.00121021182  -0.00113879715      0.677661514      -0.7190408
6.168                0.671977236    -0.724378575   -0.00121068823  -0.00113619761   -0.00121303798  -0.00113670182      0.676189822    -0.720418854
6.1696               0.670490397    -0.725748936   -0.00121349606  -0.00113409812   -0.00121586023  -0.00113459945      0.674715434    -0.721793824
6.1712               0.669000915    -0.727116132    -0.0012163001  -0.00113199171   -0.00121867854  -0.00113249004      0.673238358    -0.723165703
6.1728               0.667508797    -0.728480158   -0.00121910036  -0.00112987837    -0.0012214929  -0.00113037362        0.6717586    -0.724534486
6.1744               0.666014051     -0.72984101    -0.0012218968  -0.00112775811   -0.00122430328  -0.00112825018      0.670276168    -0.725900167
6.176                0.664516684     -0.73119868   -0.00122468942  -0.00112563096   -0.00122710967  -0.00112611975       0.66879107     -0.72726274
6.1776               0.663016705    -0.732553165   -0.00122747819  -0.00112349692   -0.00122991205  -0.00112398232      0.667303312    -0.728622198
6.1792                0.66151412    -0.733904458   -0.00123026309  -0.00112135599   -0.00123271041  -0.00112183793      0.665812904    -0.729978536
6.1808               0.660008938    -0.735252553   -0.00123304411   -0.0011192082   -0.00123550472  -0.00111968657      0.664319851    -0.731331748
6.1824               0.658501166    -0.736597446   -0.00123582123  -0.00111705354   -0.00123829496  -0.00111752825      0.662824162    -0.732681829
6.184                0.656990812    -0.737939131   -0.00123859443  -0.00111489204   -0.00124108112    -0.001115363      0.661325843    -0.734028772
6.1856               0.655477884    -0.739277603   -0.00124136369  -0.00111272369   -0.00124386318  -0.00111319081      0.659824904    -0.735372572
6.1872               0.653962389    -0.740612856     -0.001244129  -0.00111054851   -0.00124664112  -0.00111101171       0.65832135    -0.736713223
6.1888               0.652444335    -0.741944885   -0.00124689033  -0.00110836652   -0.00124941492   -0.0011088257      0.656815191    -0.738050719
6.1904                0.65092373    -0.743273685   -0.00124964767  -0.00110617772   -0.00125218457   -0.0011066328      0.655306432    -0.739385055
6.192                0.649400581     -0.74459925   -0.00125240101  -0.00110398212   -0.00125495005  -0.00110443302      0.653795083    -0.740716225
6.1936               0.647874897    -0.745921575   -0.00125515031  -0.00110177973   -0.00125771134  -0.00110222637      0.652281149    -0.742044222
6.1952               0.646346685    -0.747240655   -0.00125789557  -0.00109957056   -0.00126046841  -0.00110001285       0.65076464    -0.743369043
6.1968               0.644815953    -0.748556484   -0.00126063677  -0.00109735463   -0.00126322126  -0.00109779249      0.649245563     -0.74469068
6.1984               0.643282709    -0.749869058   -0.00126337389  -0.00109513195   -0.00126596987   -0.0010955653      0.647723925    -0.746009129
6.2                   0.64174696    -0.751178371   -0.00126610691  -0.00109290252   -0.00126871422  -0.00109333129      0.646199734    -0.747324383
6.2016               0.640208715    -0.752484418   -0.00126883581  -0.00109066636   -0.00127145429  -0.00109109046      0.644672998    -0.748636438
6.2032               0.638667981    -0.753787195   -0.00127156059  -0.00108842348   -0.00127419006  -0.00108884284      0.643143724    -0.749945288
6.2048               0.637124766    -0.755086695   -0.00127428121  -0.00108617389   -0.00127692151  -0.00108658843      0.641611921    -0.751250927
6.2064               0.635579078    -0.756382913   -0.00127699766  -0.00108391759   -0.00127964864  -0.00108432725      0.640077595     -0.75255335
6.208                0.634030924    -0.757675846   -0.00127970993  -0.00108165461   -0.00128237142   -0.0010820593      0.638540754    -0.753852551
6.2096               0.632480314    -0.758965487     -0.001282418  -0.00107938495   -0.00128508983  -0.00107978461      0.637001407    -0.755148525
6.2112               0.630927254    -0.760251832   -0.00128512184  -0.00107710863   -0.00128780386  -0.00107750319      0.635459561    -0.756441266
6.2128               0.629371752    -0.761534876   -0.00128782145  -0.00107482565   -0.00129051349  -0.00107521504      0.633915223     -0.75773077
6.2144               0.627813817    -0.762814613   -0.00129051681  -0.00107253603    -0.0012932187  -0.00107292017      0.632368402     -0.75901703
6.216                0.626253456     -0.76409104   -0.00129320789  -0.00107023977   -0.00129591947  -0.00107061861      0.630819105    -0.760300042
6.2176               0.624690678     -0.76536415   -0.00129589469   -0.0010679369    -0.0012986158  -0.00106831037      0.629267341    -0.761579801
6.2192               0.623125489    -0.766633939   -0.00129857718  -0.00106562741   -0.00130130766  -0.00106599545      0.627713116      -0.7628563
6.2208               0.621557899    -0.767900402   -0.00130125534  -0.00106331133   -0.00130399503  -0.00106367387      0.626156439    -0.764129535
6.2224               0.619987915    -0.769163535   -0.00130392917  -0.00106098866    -0.0013066779  -0.00106134564      0.624597318      -0.7653995
6.224                0.618415545    -0.770423332   -0.00130659864  -0.00105865942   -0.00130935625  -0.00105901078       0.62303576     -0.76666619
6.2256               0.616840796    -0.771679789   -0.00130926374  -0.00105632362   -0.00131203006   -0.0010566693      0.621471773    -0.767929601
6.2272               0.615263678      -0.7729329   -0.00131192445  -0.00105398126   -0.00131469932  -0.00105432121      0.619905365    -0.769189727
6.2288               0.613684198    -0.774182662   -0.00131458075  -0.00105163237   -0.00131736402  -0.00105196652      0.618336544    -0.770446562
6.2304               0.612102364    -0.775429069   -0.00131723263  -0.00104927695   -0.00132002412  -0.00104960525      0.616765318    -0.771700102
6.232                0.610518184    -0.776672118   -0.00131988007  -0.00104691501   -0.00132267963  -0.00104723741      0.615191695    -0.772950341
6.2336               0.608931666    -0.777911802   -0.00132252305  -0.00104454658   -0.00132533052  -0.00104486301      0.613615683    -0.774197275
6.2352               0.607342819    -0.779148117   -0.00132516156  -0.00104217165   -0.00132797677  -0.00104248207      0.612037289    -0.775440898
6.2368               0.605751649     -0.78038106   -0.00132779558  -0.00103979024   -0.00133061837   -0.0010400946      0.610456521    -0.776681206
6.2384               0.604158166    -0.781610624    -0.0013304251  -0.00103740236    -0.0013332553  -0.00103770062      0.608873388    -0.777918194
6.24                 0.602562376    -0.782836806   -0.00133305009  -0.00103500803   -0.00133588756  -0.00103530013      0.607287898    -0.779151856
6.2416                0.60096429    -0.784059601   -0.00133567054  -0.00103260726   -0.00133851511  -0.00103289314      0.605700058    -0.780382187
6.2432               0.599363913    -0.785279005   -0.00133828644  -0.00103020005   -0.00134113794  -0.00103047969      0.604109876    -0.781609183
6.2448               0.597761255    -0.786495013   -0.00134089777  -0.00102778643   -0.00134375604  -0.00102805977       0.60251736    -0.782832839
6.2464               0.596156324     -0.78770762   -0.00134350451   -0.0010253664    -0.0013463694  -0.00102563339      0.600922519     -0.78405315
6.248                0.594549128    -0.788916823   -0.00134610664  -0.00102293998   -0.00134897799  -0.00102320059       0.59932536    -0.785270111
6.2496               0.592939674    -0.790122616   -0.00134870416  -0.00102050718   -0.00135158181  -0.00102076136      0.597725892    -0.786483717
6.2512               0.591327971    -0.791324995   -0.00135129704  -0.00101806801   -0.00135418082  -0.00101831571      0.596124122    -0.787693964
6.2528               0.589714027    -0.792523956   -0.00135388527  -0.00101562248   -0.00135677503  -0.00101586368      0.594520058    -0.788900846
6.2544               0.588097851    -0.793719495   -0.00135646883  -0.00101317061   -0.00135936441  -0.00101340526      0.592913709    -0.790104359
6.256                 0.58647945    -0.794911606   -0.00135904771  -0.00101071241   -0.00136194894  -0.00101094047      0.591305082    -0.791304498
6.2576               0.584858832    -0.796100287   -0.00136162189  -0.00100824789   -0.00136452862  -0.00100846933      0.589694185    -0.792501259
6.2592               0.583236006    -0.797285532   -0.00136419135  -0.00100577707   -0.00136710343  -0.00100599185      0.588081028    -0.793694637
6.2608                0.58161098    -0.798467337   -0.00136675609  -0.00100329995   -0.00136967335  -0.00100350804      0.586465617    -0.794884627
6.2624               0.579983762    -0.799645699   -0.00136931608  -0.00100081655   -0.00137223836  -0.00100101792      0.584847961    -0.796071225
6.264                 0.57835436    -0.800820612    -0.0013718713 -0.000998326886   -0.00137479845 -0.000998521499      0.583228067    -0.797254425
6.2656               0.576722782    -0.801992072   -0.00137442175 -0.000995830967   -0.00137735361 -0.000996018793      0.581605945    -0.798434224
6.2672               0.575089037    -0.803160077   -0.00137696741 -0.000993328805   -0.00137990382 -0.000993509815      0.579981602    -0.799610617
6.2688               0.573453133     -0.80432462   -0.00137950826 -0.000990820416   -0.00138244907  -0.00099099458      0.578355046      -0.8007836
6.2704               0.571815077    -0.805485699   -0.00138204428  -0.00098830581   -0.00138498933 -0.000988473102      0.576726285    -0.801953167
6.272                0.570174879    -0.806643308   -0.00138457547 -0.000985785002    -0.0013875246 -0.000985945395      0.575095328    -0.803119314
6.2736               0.568532547    -0.807797445    -0.0013871018 -0.000983258004   -0.00139005486 -0.000983411473      0.573462183    -0.804282038
6.2752               0.566888088    -0.808948105   -0.00138962326  -0.00098072483   -0.00139258009  -0.00098087135      0.571826857    -0.805441332
6.2768                0.56524151    -0.810095283   -0.00139213984 -0.000978185493   -0.00139510029 -0.000978325041       0.57018936    -0.806597194
6.2784               0.563592824    -0.811238977   -0.00139465152 -0.000975640005   -0.00139761543  -0.00097577256      0.568549699    -0.807749619
6.28                 0.561942035    -0.812379181   -0.00139715828 -0.000973088381    -0.0014001255  -0.00097321392      0.566907882    -0.808898602
6.2816               0.560289153    -0.813515892   -0.00139966012 -0.000970530633   -0.00140263048 -0.000970649137      0.565263917    -0.810044139
6.2832               0.558634186    -0.814649107   -0.00140215701 -0.000967966774   -0.00140513037 -0.000968078224      0.563617814    -0.811186226
6.2848               0.556977142     -0.81577882   -0.00140464894 -0.000965396819   -0.00140762515 -0.000965501197      0.561969579    -0.812324859
6.2864                0.55531803    -0.816905029   -0.00140713589 -0.000962820779   -0.00141011479 -0.000962918069      0.560319222    -0.813460032
6.288                0.553656857    -0.818027729   -0.00140961786  -0.00096023867    -0.0014125993 -0.000960328855       0.55866675    -0.814591743
6.2896               0.551993633    -0.819146917   -0.00141209482 -0.000957650504   -0.00141507865 -0.000957733569      0.557012171    -0.815719986
6.2912               0.550328364    -0.820262589   -0.00141456677 -0.000955056294   -0.00141755283 -0.000955132227      0.555355495    -0.816844758
6.2928               0.548661061     -0.82137474   -0.00141703368 -0.000952456055   -0.00142002182 -0.000952524842      0.553696728    -0.817966055
6.2944                0.54699173    -0.822483368   -0.00141949555 -0.000949849799   -0.00142248562 -0.000949911429      0.552035881    -0.819083872
6.296                0.545320381    -0.823588468   -0.00142195235 -0.000947237541    -0.0014249442 -0.000947292002      0.550372959    -0.820198205
6.2976               0.543647021    -0.824690037   -0.00142440407 -0.000944619293   -0.00142739756 -0.000944666577      0.548707973     -0.82130905
6.2992               0.541971659    -0.825788071   -0.00142685071 -0.000941995071   -0.00142984568 -0.000942035168       0.54704093    -0.822416403
6.3008               0.540294303    -0.826882566   -0.00142929224 -0.000939364887   -0.00143228854  -0.00093939779      0.545371839    -0.823520261
6.3024               0.538614962    -0.827973519   -0.00143172865 -0.000936728754   -0.00143472613 -0.000936754458      0.543700707    -0.824620618
6.304                0.536933643    -0.829060926   -0.00143415993 -0.000934086688   -0.00143715844 -0.000934105186      0.542027543    -0.825717471
6.3056               0.535250356    -0.830144784   -0.00143658606 -0.000931438701   -0.00143958545 -0.000931449988      0.540352356    -0.826810817
6.3072               0.533565108    -0.831225089   -0.00143900703 -0.000928784808   -0.00144200716 -0.000928788881      0.538675153    -0.827900651
6.3088               0.531877909    -0.832301837   -0.00144142282 -0.000926125023   -0.00144442354 -0.000926121879      0.536995944    -0.828986969
6.3104               0.530188765    -0.833375025   -0.00144383343 -0.000923459358   -0.00144683458 -0.000923448996      0.535314736    -0.830069767
6.312                0.528497687     -0.83444465   -0.00144623883 -0.000920787829   -0.00144924028 -0.000920770248      0.533631537    -0.831149042
6.3136               0.526804681    -0.835510707   -0.00144863901 -0.000918110449   -0.00145164061  -0.00091808565      0.531946357     -0.83222479
6.3152               0.525109757    -0.836573194   -0.00145103396 -0.000915427233   -0.00145403556 -0.000915395216      0.530259203    -0.833297007
6.3168               0.523412922    -0.837632107   -0.00145342367 -0.000912738193   -0.00145642513 -0.000912698961      0.528570084    -0.834365688