! TOUCHSTONE file generated by CST MICROWAVE STUDIO
! Date and time: Tue Nov  7 19:43:22 2023
! Project name: filter_ekran_1.cst
! Parameters = {shir=10; rad_g=0.49; h=0.5; t=0.018; rad_pit=0.3; dl_3=2; l_3=5; dl_2=2.5; l_2=5; dl_1=2; l_1=7; rad_vint=1.5; st=0.5; vis_ekr=3.5}
! Header version: 2018
! Port assignment regex: !\s*Touchstone port\s*([0-9]+)\s*=\s*(CST MWS port|CST DS port)\s*([0-9]+|Zmin|Zmax)\s*\(\"(.*)\"\)(\s*mode\s*([0-9]+))?.*
! Touchstone port assignment:
! Touchstone port 1 = CST MWS port 3 ("")
! Touchstone port 2 = CST MWS port 4 ("")
# GHz S RI R 50
6                    0.600783976    -0.780527543   -0.00237891239  -0.00137098345   -0.00237891348  -0.00137098391      0.599527921    -0.781408021
6.0016               0.599045047    -0.781864463   -0.00238258073  -0.00136645104   -0.00238258135  -0.00136644775      0.597768778    -0.782755835
6.0032               0.597303013    -0.783197577   -0.00238624025  -0.00136190752   -0.00238624038  -0.00136190052      0.596006418    -0.784099802
6.0048               0.595557884    -0.784526878   -0.00238989092  -0.00135735292   -0.00238989055  -0.00135734226      0.594240851    -0.785439914
6.0064                0.59380967    -0.785852357   -0.00239353269  -0.00135278725   -0.00239353181  -0.00135277298      0.592472086    -0.786776161
6.008                 0.59205838    -0.787174006   -0.00239716552  -0.00134821056   -0.00239716412  -0.00134819271      0.590700132    -0.788108536
6.0096               0.590304023    -0.788491818   -0.00240078939  -0.00134362284   -0.00240078744  -0.00134360146      0.588924999    -0.789437028
6.0112               0.588546609    -0.789805783   -0.00240440424  -0.00133902413   -0.00240440174  -0.00133899926      0.587146696     -0.79076163
6.0128               0.586786147    -0.791115894   -0.00240801004  -0.00133441445   -0.00240800698  -0.00133438613      0.585365234    -0.792082333
6.0144               0.585022648    -0.792422142   -0.00241160675  -0.00132979382   -0.00241160312   -0.0013297621      0.583580621    -0.793399128
6.016                0.583256119     -0.79372452   -0.00241519433  -0.00132516227   -0.00241519012  -0.00132512718      0.581792867    -0.794712006
6.0176               0.581486571     -0.79502302   -0.00241877275  -0.00132051982   -0.00241876795   -0.0013204814      0.580001982    -0.796020958
6.0192               0.579714014    -0.796317633   -0.00242234196  -0.00131586648   -0.00242233655  -0.00131582479      0.578207975    -0.797325977
6.0208               0.577938458    -0.797608352   -0.00242590193  -0.00131120229   -0.00242589591  -0.00131115736      0.576410856    -0.798627053
6.0224                0.57615991    -0.798895169   -0.00242945262  -0.00130652727   -0.00242944598  -0.00130647915      0.574610635    -0.799924178
6.024                0.574378383    -0.800178075   -0.00243299399  -0.00130184145   -0.00243298672  -0.00130179016      0.572807322    -0.801217343
6.0256               0.572593884    -0.801457063     -0.002436526  -0.00129714483   -0.00243651809  -0.00129709044      0.571000926     -0.80250654
6.0272               0.570806424    -0.802732125   -0.00244004862  -0.00129243746   -0.00244004006  -0.00129237999      0.569191457     -0.80379176
6.0288               0.569016013    -0.804003254   -0.00244356181  -0.00128771935   -0.00244355259  -0.00128765886      0.567378925    -0.805072995
6.0304                0.56722266    -0.805270441   -0.00244706553  -0.00128299053   -0.00244705564  -0.00128292705       0.56556334    -0.806350236
6.032                0.565426376    -0.806533679   -0.00245055974  -0.00127825103   -0.00245054918   -0.0012781846      0.563744712    -0.807623476
6.0336               0.563627169    -0.807792959   -0.00245404441  -0.00127350086   -0.00245403316  -0.00127343152       0.56192305    -0.808892705
6.0352                0.56182505    -0.809048275    -0.0024575195  -0.00126874005   -0.00245750755  -0.00126866785      0.560098365    -0.810157915
6.0368               0.560020028    -0.810299618   -0.00246098496  -0.00126396864   -0.00246097232  -0.00126389361      0.558270666    -0.811419098
6.0384               0.558212114    -0.811546982   -0.00246444077  -0.00125918663   -0.00246442742  -0.00125910883      0.556439963    -0.812676246
6.04                 0.556401318    -0.812790357   -0.00246788689  -0.00125439407   -0.00246787283  -0.00125431352      0.554606267    -0.813929351
6.0416               0.554587648    -0.814029738   -0.00247132327  -0.00124959096   -0.00247130849  -0.00124950772      0.552769587    -0.815178403
6.0432               0.552771116    -0.815265115   -0.00247474989  -0.00124477735   -0.00247473439  -0.00124469144      0.550929934    -0.816423396
6.0448               0.550951731    -0.816496482   -0.00247816671  -0.00123995326   -0.00247815047  -0.00123986473      0.549087318     -0.81766432
6.0464               0.549129503    -0.817723831   -0.00248157368   -0.0012351187   -0.00248155671   -0.0012350276      0.547241748    -0.818901169
6.048                0.547304443    -0.818947155   -0.00248497077  -0.00123027371   -0.00248495306  -0.00123018007      0.545393235    -0.820133932
6.0496               0.545476559    -0.820166446   -0.00248835796  -0.00122541832   -0.00248833949  -0.00122532218      0.543541789    -0.821362604
6.0512               0.543645863    -0.821381697   -0.00249173519  -0.00122055255   -0.00249171597  -0.00122045395      0.541687421    -0.822587175
6.0528               0.541812365    -0.822592901   -0.00249510243  -0.00121567642   -0.00249508246  -0.00121557541       0.53983014    -0.823807637
6.0544               0.539976073    -0.823800049   -0.00249845965  -0.00121078997   -0.00249843892  -0.00121068658      0.537969956    -0.825023983
6.056                0.538136999    -0.825003136   -0.00250180682  -0.00120589322   -0.00250178532  -0.00120578749       0.53610688    -0.826236205
6.0576               0.536295153    -0.826202152   -0.00250514388   -0.0012009862   -0.00250512161  -0.00120087817      0.534240923    -0.827444294
6.0592               0.534450545    -0.827397092   -0.00250847082  -0.00119606893   -0.00250844778  -0.00119595864      0.532372094    -0.828648242
6.0608               0.532603185    -0.828587948   -0.00251178759  -0.00119114144   -0.00251176377  -0.00119102894      0.530500405    -0.829848043
6.0624               0.530753083    -0.829774713   -0.00251509416  -0.00118620377   -0.00251506956  -0.00118608908      0.528625864    -0.831043688
6.064                 0.52890025    -0.830957379   -0.00251839049  -0.00118125593    -0.0025183651  -0.00118113911      0.526748483    -0.832235169
6.0656               0.527044696     -0.83213594   -0.00252167654  -0.00117629796   -0.00252165038  -0.00117617903      0.524868272    -0.833422478
6.0672                0.52518643    -0.833310389   -0.00252495229  -0.00117132988   -0.00252492534  -0.00117120889      0.522985242    -0.834605609
6.0688               0.523325464    -0.834480717   -0.00252821769  -0.00116635172   -0.00252818995  -0.00116622871      0.521099403    -0.835784552
6.0704               0.521461807    -0.835646919   -0.00253147272  -0.00116136351   -0.00253144418  -0.00116123852      0.519210765      -0.8369593
6.072                0.519595471    -0.836808987   -0.00253471733  -0.00115636529     -0.002534688  -0.00115623835      0.517319339    -0.838129847
6.0736               0.517726464    -0.837966915   -0.00253795149  -0.00115135706   -0.00253792137  -0.00115122822      0.515425136    -0.839296183
6.0752               0.515854799    -0.839120695   -0.00254117517  -0.00114633888   -0.00254114425  -0.00114620817      0.513528165    -0.840458302
6.0768               0.513980484     -0.84027032   -0.00254438833  -0.00114131076   -0.00254435661  -0.00114117822      0.511628439    -0.841616196
6.0784               0.512103531    -0.841415784   -0.00254759093  -0.00113627273   -0.00254755842   -0.0011361384      0.509725966    -0.842769857
6.08                  0.51022395    -0.842557079   -0.00255078295  -0.00113122482   -0.00255074964  -0.00113108874      0.507820759    -0.843919279
6.0816               0.508341751      -0.8436942   -0.00255396435  -0.00112616707   -0.00255393024  -0.00112602927      0.505912827    -0.845064453
6.0832               0.506456946    -0.844827138   -0.00255713509   -0.0011210995   -0.00255710019  -0.00112096002      0.504002182    -0.846205372
6.0848               0.504569543    -0.845955888   -0.00256029514  -0.00111602214   -0.00256025944  -0.00111588102      0.502088833    -0.847342028
6.0864               0.502679555    -0.847080442   -0.00256344447  -0.00111093502   -0.00256340797   -0.0011107923      0.500172792    -0.848474415
6.088                0.500786991    -0.848200794   -0.00256658304  -0.00110583817   -0.00256654575  -0.00110569389       0.49825407    -0.849602525
6.0896               0.498891861    -0.849316937   -0.00256971081  -0.00110073162   -0.00256967273  -0.00110058581      0.496332677    -0.850726351
6.0912               0.496994178    -0.850428865   -0.00257282777  -0.00109561541   -0.00257278889  -0.00109546811      0.494408624    -0.851845885
6.0928               0.495093951    -0.851536571   -0.00257593386  -0.00109048955   -0.00257589419   -0.0010903408      0.492481921    -0.852961121
6.0944                0.49319119    -0.852640048   -0.00257902906  -0.00108535409    -0.0025789886  -0.00108520392       0.49055258     -0.85407205
6.096                0.491285907     -0.85373929   -0.00258211334  -0.00108020905   -0.00258207209  -0.00108005749      0.488620612    -0.855178667
6.0976               0.489378111    -0.854834291   -0.00258518666  -0.00107505446   -0.00258514462  -0.00107490156      0.486686027    -0.856280963
6.0992               0.487467815    -0.855925043   -0.00258824898  -0.00106989035   -0.00258820616  -0.00106973615      0.484748837    -0.857378932
6.1008               0.485555028    -0.857011541   -0.00259130028  -0.00106471676   -0.00259125668  -0.00106456129      0.482809052    -0.858472566
6.1024               0.483639761    -0.858093778   -0.00259434053  -0.00105953372   -0.00259429615  -0.00105937701      0.480866683    -0.859561859
6.104                0.481722025    -0.859171747   -0.00259736968  -0.00105434125   -0.00259732453  -0.00105418334      0.478921741    -0.860646804
6.1056                0.47980183    -0.860245443   -0.00260038772   -0.0010491394   -0.00260034179  -0.00104898032      0.476974238    -0.861727393
6.1072               0.477879188    -0.861314858    -0.0026033946  -0.00104392818    -0.0026033479  -0.00104376797      0.475024183     -0.86280362
6.1088               0.475954109    -0.862379988   -0.00260639029  -0.00103870763   -0.00260634283  -0.00103854633      0.473071589    -0.863875477
6.1104               0.474026604    -0.863440825   -0.00260937476  -0.00103347779   -0.00260932654  -0.00103331543      0.471116466    -0.864942959
6.112                0.472096684    -0.864497363   -0.00261234798  -0.00102823868   -0.00261229901   -0.0010280753      0.469158826    -0.866006057
6.1136               0.470164359    -0.865549596   -0.00261530992  -0.00102299035    -0.0026152602  -0.00102282597      0.467198679    -0.867064766
6.1152               0.468229641    -0.866597518   -0.00261826055  -0.00101773281   -0.00261821007  -0.00101756748      0.465236036    -0.868119078
6.1168                0.46629254    -0.867641122   -0.00262119983   -0.0010124661   -0.00262114861  -0.00101229985       0.46327091    -0.869168988
6.1184               0.464353067    -0.868680404   -0.00262412773  -0.00100719026   -0.00262407577  -0.00100702312       0.46130331    -0.870214487
6.12                 0.462411234    -0.869715356   -0.00262704422  -0.00100190531   -0.00262699153  -0.00100173733      0.459333249    -0.871255569
6.1216                0.46046705    -0.870745973   -0.00262994927 -0.000996611297   -0.00262989586 -0.000996442495      0.457360736    -0.872292229
6.1232               0.458520527    -0.871772248   -0.00263284286 -0.000991308245   -0.00263278872 -0.000991138659      0.455385785    -0.873324458
6.1248               0.456571676    -0.872794176   -0.00263572494 -0.000985996188   -0.00263567009 -0.000985825852      0.453408405    -0.874352251
6.1264               0.454620509     -0.87381175   -0.00263859549  -0.00098067516   -0.00263853992 -0.000980504107      0.451428608    -0.875375602
6.128                0.452667035    -0.874824966   -0.00264145447 -0.000975345194   -0.00264139821 -0.000975173458      0.449446405    -0.876394503
6.1296               0.450711265    -0.875833817   -0.00264430186 -0.000970006323    -0.0026442449 -0.000969833936      0.447461808    -0.877408948
6.1312               0.448753212    -0.876838296   -0.00264713763 -0.000964658581   -0.00264707998 -0.000964485577      0.445474829     -0.87841893
6.1328               0.446792886    -0.877838399   -0.00264996174 -0.000959302002    -0.0026499034 -0.000959128412      0.443485477    -0.879424444
6.1344               0.444830298     -0.87883412   -0.00265277417 -0.000953936618   -0.00265271516 -0.000953762476      0.441493765    -0.880425483
6.136                0.442865459    -0.879825453   -0.00265557488 -0.000948562465    -0.0026555152 -0.000948387802      0.439499704    -0.881422041
6.1376                0.44089838    -0.880812392   -0.00265836385 -0.000943179575   -0.00265830351 -0.000943004424      0.437503306    -0.882414111
6.1392               0.438929072    -0.881794931   -0.00266114105 -0.000937787983   -0.00266108005 -0.000937612376      0.435504582    -0.883401687
6.1408               0.436957547    -0.882773066   -0.00266390644 -0.000932387723   -0.00266384479 -0.000932211691      0.433503543    -0.884384764
6.1424               0.434983815     -0.88374679      -0.00266666  -0.00092697883   -0.00266659771 -0.000926802405        0.4315002    -0.885363333
6.144                0.433007888    -0.884716097    -0.0026694017 -0.000921561337   -0.00266933878  -0.00092138455      0.429494566    -0.886337391
6.1456               0.431029776    -0.885680983    -0.0026721315 -0.000916135279   -0.00267206797 -0.000915958162      0.427486652     -0.88730693
6.1472               0.429049492    -0.886641442   -0.00267484939 -0.000910700692   -0.00267478524 -0.000910523275       0.42547647    -0.888271944
6.1488               0.427067046    -0.887597468   -0.00267755533 -0.000905257609   -0.00267749057 -0.000905079923       0.42346403    -0.889232427
6.1504               0.425082449    -0.888549056   -0.00268024929 -0.000899806065   -0.00268018394 -0.000899628141      0.421449344    -0.890188374
6.152                0.423095713      -0.8894962   -0.00268293125 -0.000894346097    -0.0026828653 -0.000894167964      0.419432424    -0.891139778
6.1536               0.421106849    -0.890438896   -0.00268560117 -0.000888877737   -0.00268553465 -0.000888699427      0.417413282    -0.892086634
6.1552               0.419115868    -0.891377138   -0.00268825903 -0.000883401023   -0.00268819193 -0.000883222564       0.41539193    -0.893028935
6.1568               0.417122781     -0.89231092   -0.00269090479 -0.000877915989   -0.00269083714 -0.000877737412      0.413368378    -0.893966676
6.1584                 0.4151276    -0.893240237   -0.00269353844  -0.00087242267   -0.00269347024 -0.000872244005      0.411342638    -0.894899851
6.16                 0.413130336    -0.894165085   -0.00269615995 -0.000866921102    -0.0026960912 -0.000866742377      0.409314723    -0.895828453
6.1616               0.411131001    -0.895085458   -0.00269876928 -0.000861411321       -0.0026987 -0.000861232566      0.407284643    -0.896752478
6.1632               0.409129605     -0.89600135   -0.00270136641 -0.000855893363   -0.00270129661 -0.000855714607      0.405252411     -0.89767192
6.1648                0.40712616    -0.896912757   -0.00270395131 -0.000850367263     -0.002703881 -0.000850188534      0.403218038    -0.898586772
6.1664               0.405120677    -0.897819674   -0.00270652395 -0.000844833057   -0.00270645315 -0.000844654384      0.401181536     -0.89949703
6.168                0.403113168    -0.898722095   -0.00270908431 -0.000839290781   -0.00270901302 -0.000839112193      0.399142916    -0.900402687
6.1696               0.401103644    -0.899620016   -0.00271163236 -0.000833740472   -0.00271156059 -0.000833561996      0.397102191    -0.901303738
6.1712               0.399092117    -0.900513431   -0.00271416808 -0.000828182166   -0.00271409584  -0.00082800383      0.395059373    -0.902200177
6.1728               0.397078597    -0.901402336   -0.00271669143 -0.000822615899   -0.00271661874 -0.000822437731      0.393014472       -0.903092
6.1744               0.395063097    -0.902286726    -0.0027192024 -0.000817041708   -0.00271912925 -0.000816863735      0.390967501      -0.9039792
6.176                0.393045627    -0.903166595   -0.00272170095 -0.000811459628   -0.00272162737 -0.000811281878      0.388918472    -0.904861772
6.1776                 0.3910262     -0.90404194   -0.00272418705 -0.000805869698   -0.00272411305 -0.000805692197      0.386867396     -0.90573971
6.1792               0.389004826    -0.904912755   -0.00272666069 -0.000800271953   -0.00272658628 -0.000800094729      0.384814285     -0.90661301
6.1808               0.386981517    -0.905779035   -0.00272912184 -0.000794666431   -0.00272904703  -0.00079448951      0.382759152    -0.907481666
6.1824               0.384956285    -0.906640776   -0.00273157046 -0.000789053168   -0.00273149527 -0.000788876576      0.380702008    -0.908345673
6.184                0.382929141    -0.907497973   -0.00273400655 -0.000783432202   -0.00273393097 -0.000783255965      0.378642865    -0.909205025
6.1856               0.380900096    -0.908350621   -0.00273643006 -0.000777803569   -0.00273635412 -0.000777627714      0.376581735    -0.910059717
6.1872               0.378869163    -0.909198716   -0.00273884098 -0.000772167308   -0.00273876469  -0.00077199186       0.37451863    -0.910909744
6.1888               0.376836352    -0.910042253   -0.00274123928 -0.000766523454   -0.00274116265 -0.000766348439      0.372453561    -0.911755101
6.1904               0.374801675    -0.910881228   -0.00274362493 -0.000760872047   -0.00274354797 -0.000760697489      0.370386542    -0.912595782
6.192                0.372765145    -0.911715635   -0.00274599791 -0.000755213122   -0.00274592064 -0.000755039048      0.368317583    -0.913431784
6.1936               0.370726771    -0.912545471    -0.0027483582 -0.000749546718   -0.00274828063 -0.000749373152      0.366246697    -0.914263099
6.1952               0.368686566    -0.913370732   -0.00275070577 -0.000743872873   -0.00275062792  -0.00074369984      0.364173896    -0.915089725
6.1968               0.366644542    -0.914191411    -0.0027530406 -0.000738191624   -0.00275296247 -0.000738019148      0.362099192    -0.915911655
6.1984                0.36460071    -0.915007507   -0.00275536267  -0.00073250301   -0.00275528427 -0.000732331114      0.360022596    -0.916728885
6.2                  0.362555081    -0.915819013   -0.00275767194 -0.000726807067    -0.0027575933 -0.000726635777      0.357944121     -0.91754141
6.2016               0.360507668    -0.916625925    -0.0027599684 -0.000721103835   -0.00275988952 -0.000720933173       0.35586378    -0.918349225
6.2032               0.358458482     -0.91742824   -0.00276225202 -0.000715393351   -0.00276217292 -0.000715223342      0.353781583    -0.919152325
6.2048               0.356407534    -0.918225953   -0.00276452277 -0.000709675654   -0.00276444347  -0.00070950632      0.351697544    -0.919950705
6.2064               0.354354837     -0.91901906   -0.00276678065 -0.000703950781   -0.00276670115 -0.000703782146      0.349611674    -0.920744361
6.208                0.352300401    -0.919807557   -0.00276902562 -0.000698218772   -0.00276894593 -0.000698050858      0.347523985    -0.921533288
6.2096               0.350244239    -0.920591439   -0.00277125765 -0.000692479664    -0.0027711778 -0.000692312495       0.34543449    -0.922317481
6.2112               0.348186363    -0.921370702   -0.00277347674 -0.000686733497   -0.00277339674 -0.000686567094        0.3433432    -0.923096936
6.2128               0.346126783    -0.922145343   -0.00277568285 -0.000680980309   -0.00277560271 -0.000680814694      0.341250128    -0.923871648
6.2144               0.344065512    -0.922915357   -0.00277787596 -0.000675220138   -0.00277779569 -0.000675055334      0.339155286    -0.924641612
6.216                0.342002561    -0.923680741   -0.00278005604 -0.000669453024   -0.00277997567 -0.000669289052      0.337058687    -0.925406825
6.2176               0.339937943    -0.924441489   -0.00278222309 -0.000663679005   -0.00278214262 -0.000663515886      0.334960342     -0.92616728
6.2192               0.337871668      -0.9251976   -0.00278437707  -0.00065789812   -0.00278429652 -0.000657735876      0.332860263    -0.926922975
6.2208               0.335803749    -0.925949067   -0.00278651797 -0.000652110408   -0.00278643735  -0.00065194906      0.330758463    -0.927673905
6.2224               0.333734197    -0.926695889   -0.00278864576 -0.000646315909   -0.00278856509 -0.000646155478      0.328654955    -0.928420065
6.224                0.331663024     -0.92743806   -0.00279076042 -0.000640514661   -0.00279067971 -0.000640355167      0.326549749     -0.92916145
6.2256               0.329590242    -0.928175577   -0.00279286193 -0.000634706704    -0.0027927812 -0.000634548167      0.324442859    -0.929898058
6.2272               0.327515863    -0.928908437   -0.00279495026 -0.000628892076   -0.00279486953 -0.000628734517      0.322334297    -0.930629883
6.2288               0.325439898    -0.929636635   -0.00279702541 -0.000623070819   -0.00279694468 -0.000622914256      0.320224075    -0.931356921
6.2304                0.32336236    -0.930360168   -0.00279908734 -0.000617242969   -0.00279900663 -0.000617087424      0.318112206    -0.932079168
6.232                0.321283259    -0.931079033   -0.00280113604 -0.000611408569   -0.00280105537  -0.00061125406      0.315998701    -0.932796619
6.2336               0.319202609    -0.931793225   -0.00280317148 -0.000605567656   -0.00280309086 -0.000605414202      0.313883573    -0.933509272
6.2352                0.31712042    -0.932502741   -0.00280519365  -0.00059972027    -0.0028051131 -0.000599567891      0.311766835    -0.934217121
6.2368               0.315036704    -0.933207577   -0.00280720252 -0.000593866452   -0.00280712206 -0.000593715166      0.309648498    -0.934920163
6.2384               0.312951474    -0.933907731   -0.00280919808 -0.000588006241   -0.00280911771 -0.000587856066      0.307528576    -0.935618394
6.24                 0.310864741    -0.934603198    -0.0028111803 -0.000582139676   -0.00281110005 -0.000581990631       0.30540708    -0.936311809
6.2416               0.308776517    -0.935293975   -0.00281314917 -0.000576266799   -0.00281306905 -0.000576118901      0.303284022    -0.937000405
6.2432               0.306686814    -0.935980059   -0.00281510467 -0.000570387648    -0.0028150247 -0.000570240915      0.301159416    -0.937684177
6.2448               0.304595644    -0.936661446   -0.00281704678 -0.000564502263   -0.00281696696 -0.000564356714      0.299033273    -0.938363123
6.2464               0.302503018    -0.937338133   -0.00281897547 -0.000558610686   -0.00281889583 -0.000558466336      0.296905606    -0.939037238
6.248                0.300408949    -0.938010117   -0.00282089073 -0.000552712956   -0.00282081129 -0.000552569823      0.294776428    -0.939706519
6.2496               0.298313449    -0.938677394   -0.00282279254 -0.000546809112   -0.00282271331 -0.000546667214       0.29264575    -0.940370961
6.2512               0.296216529    -0.939339962   -0.00282468088 -0.000540899196   -0.00282460187 -0.000540758548      0.290513586    -0.941030561
6.2528               0.294118201    -0.939997816   -0.00282655574 -0.000534983248   -0.00282647697 -0.000534843867      0.288379947    -0.941685316
6.2544               0.292018477    -0.940650955   -0.00282841709 -0.000529061308   -0.00282833858 -0.000528923209      0.286244846    -0.942335222
6.256                0.289917369    -0.941299374   -0.00283026492 -0.000523133417   -0.00283018668 -0.000522996616      0.284108296    -0.942980274
6.2576               0.287814889    -0.941943071   -0.00283209921 -0.000517199614   -0.00283202126 -0.000517064128      0.281970309    -0.943620471
6.2592               0.285711049    -0.942582042   -0.00283391994 -0.000511259941    -0.0028338423 -0.000511125785      0.279830898    -0.944255807
6.2608               0.283605861    -0.943216286    -0.0028357271 -0.000505314438   -0.00283564977 -0.000505181627      0.277690074     -0.94488628
6.2624               0.281499337    -0.943845798   -0.00283752066 -0.000499363146   -0.00283744367 -0.000499231694      0.275547851    -0.945511887
6.264                0.279391488    -0.944470575   -0.00283930061 -0.000493406105   -0.00283922398 -0.000493276028      0.273404241    -0.946132623
6.2656               0.277282327    -0.945090616   -0.00284106693 -0.000487443356   -0.00284099067 -0.000487314668      0.271259256    -0.946748486
6.2672               0.275171866    -0.945705916   -0.00284281961  -0.00048147494   -0.00284274373 -0.000481347655      0.269112909    -0.947359472
6.2688               0.273060117    -0.946316474   -0.00284455862 -0.000475500898   -0.00284448315  -0.00047537503      0.266965213    -0.947965578
6.2704               0.270947091    -0.946922285   -0.00284628396 -0.000469521271   -0.00284620891 -0.000469396833       0.26481618    -0.948566801
6.272                  0.2688328    -0.947523349   -0.00284799561 -0.000463536099   -0.00284792099 -0.000463413105      0.262665823    -0.949163137
6.2736               0.266717257    -0.948119661   -0.00284969354 -0.000457545423   -0.00284961938 -0.000457423887      0.260514153    -0.949754584
6.2752               0.264600474     -0.94871122   -0.00285137775 -0.000451549285   -0.00285130405  -0.00045142922      0.258361185    -0.950341138
6.2768               0.262482462    -0.949298022   -0.00285304821 -0.000445547726     -0.002852975 -0.000445429144      0.256206929    -0.950922796
6.2784               0.260363234    -0.949880065   -0.00285470492 -0.000439540786   -0.00285463221   -0.0004394237        0.2540514    -0.951499555
6.28                 0.258242801    -0.950457346   -0.00285634785 -0.000433528506   -0.00285627567 -0.000433412929      0.251894609    -0.952071412
6.2816               0.256121176    -0.951029863     -0.002857977 -0.000427510929   -0.00285790535 -0.000427396872      0.249736569    -0.952638364
6.2832                0.25399837    -0.951597613   -0.00285959234 -0.000421488095   -0.00285952124  -0.00042137557      0.247577292    -0.953200409
6.2848               0.251874396    -0.952160594   -0.00286119386 -0.000415460045   -0.00286112333 -0.000415349064      0.245416792    -0.953757543
6.2864               0.249749266    -0.952718803   -0.00286278155 -0.000409426821    -0.0028627116 -0.000409317395      0.243255081    -0.954309763
6.288                0.247622991    -0.953272238   -0.00286435539 -0.000403388463   -0.00286428604 -0.000403280604      0.241092171    -0.954857067
6.2896               0.245495583    -0.953820897   -0.00286591537 -0.000397345014   -0.00286584664 -0.000397238732      0.238928075    -0.955399452
6.2912               0.243367056    -0.954364777   -0.00286746147 -0.000391296514   -0.00286739337  -0.00039119182      0.236762806    -0.955936915
6.2928                0.24123742    -0.954903876   -0.00286899368 -0.000385243006   -0.00286892623  -0.00038513991      0.234596376    -0.956469454
6.2944               0.239106687    -0.955438192   -0.00287051198  -0.00037918453    -0.0028704452 -0.000379083043      0.232428798    -0.956997065
6.296                0.236974871    -0.955967722   -0.00287201636 -0.000373121128   -0.00287195027 -0.000373021259      0.230260084    -0.957519747
6.2976               0.234841982    -0.956492465   -0.00287350682 -0.000367052841   -0.00287344143 -0.000366954601      0.228090248    -0.958037496
6.2992               0.232708033    -0.957012417   -0.00287498332 -0.000360979711   -0.00287491865 -0.000360883109      0.225919301     -0.95855031
6.3008               0.230573036    -0.957527578   -0.00287644587  -0.00035490178   -0.00287638193 -0.000354806825      0.223747258    -0.959058187
6.3024               0.228437003    -0.958037944   -0.00287789444 -0.000348819089   -0.00287783125 -0.000348725791      0.221574129    -0.959561124
6.304                0.226299946    -0.958543514   -0.00287932903  -0.00034273168   -0.00287926661 -0.000342640047      0.219399928    -0.960059118
6.3056               0.224161877    -0.959044286   -0.00288074962 -0.000336639594   -0.00288068798 -0.000336549635      0.217224668    -0.960552168
6.3072               0.222022808    -0.959540259    -0.0028821562 -0.000330542873   -0.00288209536 -0.000330454596      0.215048361     -0.96104027
6.3088               0.219882751    -0.960031429   -0.00288354876 -0.000324441559   -0.00288348874 -0.000324354972       0.21287102    -0.961523423
6.3104               0.217741719    -0.960517795   -0.00288492728 -0.000318335693   -0.00288486809 -0.000318250805      0.210692657    -0.962001625
6.312                0.215599723    -0.960999355   -0.00288629175 -0.000312225317   -0.00288623342 -0.000312142135      0.208513286    -0.962474872
6.3136               0.213456775    -0.961476107   -0.00288764216 -0.000306110473    -0.0028875847 -0.000306029005      0.206332918    -0.962943164
6.3152               0.211312888     -0.96194805   -0.00288897851 -0.000299991203   -0.00288892192 -0.000299911455      0.204151567    -0.963406497